<?xml version="1.0" encoding="UTF-8"?>

<!-- generated on 2026-02-25T00:09:49.482588+05:30 by Eclipse SUMO GUI 1.26.0
<sumoConfiguration xmlns:xsi="http://www.w3.org/2001/XMLSchema-instance" xsi:noNamespaceSchemaLocation="http://sumo.dlr.de/xsd/sumoConfiguration.xsd">

    <input>
        <net-file value="C:\Users\aksha\OneDrive\Desktop\TrafficFlow_Project\2026-02-25-00-09-38\osm.net.xml.gz"/>
        <route-files value="C:\Users\aksha\OneDrive\Desktop\TrafficFlow_Project\2026-02-25-00-09-38\osm.passenger.trips.xml"/>
        <additional-files value="C:\Users\aksha\OneDrive\Desktop\TrafficFlow_Project\2026-02-25-00-09-38\osm.poly.xml.gz,C:\Users\aksha\OneDrive\Desktop\TrafficFlow_Project\2026-02-25-00-09-38\output.add.xml"/>
    </input>

    <output>
        <tripinfo-output value="C:\Users\aksha\OneDrive\Desktop\TrafficFlow_Project\2026-02-25-00-09-38\tripinfos.xml"/>
        <statistic-output value="C:\Users\aksha\OneDrive\Desktop\TrafficFlow_Project\2026-02-25-00-09-38\stats.xml"/>
    </output>

    <processing>
        <ignore-route-errors value="true"/>
        <tls.actuated.jam-threshold value="30"/>
    </processing>

    <routing>
        <device.rerouting.adaptation-steps value="18"/>
        <device.rerouting.adaptation-interval value="10"/>
    </routing>

    <report>
        <verbose value="true"/>
        <duration-log.statistics value="true"/>
        <no-step-log value="true"/>
    </report>

    <gui_only>
        <gui-settings-file value="C:\Users\aksha\OneDrive\Desktop\TrafficFlow_Project\2026-02-25-00-09-38\osm.view.xml"/>
    </gui_only>

</sumoConfiguration>
-->

<meandata xmlns:xsi="http://www.w3.org/2001/XMLSchema-instance" xsi:noNamespaceSchemaLocation="http://sumo.dlr.de/xsd/meandata_file.xsd">
    <interval begin="0.00" end="937.00" id="wizard_example">
        <edge id="-1080439104" sampledSeconds="30.90" traveltime="2.14" overlapTraveltime="3.03" density="2.90" overlapDensity="4.35" laneDensity="2.90" occupancy="1.55" waitingTime="3.00" timeLoss="21.81" speed="4.15" speedRelative="0.19" departed="2" arrived="0" entered="9" left="11" laneChangedFrom="0" laneChangedTo="0" flow="37.09"/>
        <edge id="-1103359856#0" sampledSeconds="0.00" departed="0" arrived="0" entered="0" left="0" laneChangedFrom="0" laneChangedTo="0"/>
        <edge id="-1103359856#1" sampledSeconds="2.28" traveltime="3.23" overlapTraveltime="3.65" density="0.16" overlapDensity="0.28" laneDensity="0.16" occupancy="0.11" waitingTime="0.00" timeLoss="1.32" speed="3.72" speedRelative="0.27" departed="1" arrived="0" entered="0" left="1" laneChangedFrom="0" laneChangedTo="0" flow="1.56"/>
        <edge id="-1103359857" sampledSeconds="2.34" traveltime="3.03" overlapTraveltime="3.72" density="0.15" overlapDensity="0.29" laneDensity="0.15" occupancy="0.11" waitingTime="0.00" timeLoss="1.27" speed="3.70" speedRelative="0.27" departed="1" arrived="0" entered="0" left="1" laneChangedFrom="0" laneChangedTo="0" flow="1.61"/>
        <edge id="-1103364522" sampledSeconds="6.92" traveltime="6.66" overlapTraveltime="7.42" density="0.09" overlapDensity="0.10" laneDensity="0.09" occupancy="0.05" waitingTime="0.00" timeLoss="1.13" speed="10.25" speedRelative="0.74" departed="1" arrived="0" entered="0" left="1" laneChangedFrom="0" laneChangedTo="0" flow="3.57"/>
        <edge id="-1103364532#0" sampledSeconds="0.00" departed="0" arrived="0" entered="0" left="0" laneChangedFrom="0" laneChangedTo="0"/>
        <edge id="-1103364532#1" sampledSeconds="0.00" departed="0" arrived="0" entered="0" left="0" laneChangedFrom="0" laneChangedTo="0"/>
        <edge id="-1103364533" sampledSeconds="0.00" departed="0" arrived="0" entered="0" left="0" laneChangedFrom="0" laneChangedTo="0"/>
        <edge id="-1118363225#0" sampledSeconds="0.00" departed="0" arrived="0" entered="0" left="0" laneChangedFrom="0" laneChangedTo="0"/>
        <edge id="-1118363225#1" sampledSeconds="0.00" departed="0" arrived="0" entered="0" left="0" laneChangedFrom="0" laneChangedTo="0"/>
        <edge id="-1118363226" sampledSeconds="0.00" departed="0" arrived="0" entered="0" left="0" laneChangedFrom="0" laneChangedTo="0"/>
        <edge id="-1118363227" sampledSeconds="0.00" departed="0" arrived="0" entered="0" left="0" laneChangedFrom="0" laneChangedTo="0"/>
        <edge id="-1128446074" sampledSeconds="0.00" departed="0" arrived="0" entered="0" left="0" laneChangedFrom="0" laneChangedTo="0"/>
        <edge id="-138959048#0" sampledSeconds="32.30" traveltime="4.24" overlapTraveltime="5.48" density="0.65" overlapDensity="0.84" laneDensity="0.65" occupancy="0.35" waitingTime="0.00" timeLoss="18.58" speed="8.43" speedRelative="0.38" departed="1" arrived="0" entered="5" left="6" laneChangedFrom="0" laneChangedTo="0" flow="22.58"/>
        <edge id="-138959048#1" sampledSeconds="7.39" traveltime="1.57" overlapTraveltime="1.85" density="0.28" overlapDensity="0.32" laneDensity="0.28" occupancy="0.13" waitingTime="0.00" timeLoss="2.02" speed="15.88" speedRelative="0.71" departed="0" arrived="0" entered="4" left="4" laneChangedFrom="0" laneChangedTo="0" flow="15.37"/>
        <edge id="-138959048#2" sampledSeconds="194.18" traveltime="48.41" overlapTraveltime="48.77" density="0.19" overlapDensity="0.19" laneDensity="0.19" occupancy="0.10" waitingTime="0.00" timeLoss="6.70" speed="22.23" speedRelative="1.00" departed="4" arrived="0" entered="0" left="4" laneChangedFrom="0" laneChangedTo="0" flow="15.30"/>
        <edge id="-331637295#0" sampledSeconds="12.74" traveltime="11.88" overlapTraveltime="12.74" density="0.12" overlapDensity="0.13" laneDensity="0.12" occupancy="0.06" waitingTime="0.00" timeLoss="3.10" speed="8.59" speedRelative="0.62" departed="0" arrived="0" entered="1" left="1" laneChangedFrom="0" laneChangedTo="0" flow="3.84"/>
        <edge id="-331637295#1" sampledSeconds="0.00" departed="0" arrived="0" entered="0" left="0" laneChangedFrom="0" laneChangedTo="0"/>
        <edge id="-438370027#0" sampledSeconds="75.13" traveltime="3.04" overlapTraveltime="4.04" density="2.93" overlapDensity="3.91" laneDensity="2.93" occupancy="1.60" waitingTime="1.00" timeLoss="29.68" speed="6.31" speedRelative="0.45" departed="2" arrived="0" entered="17" left="19" laneChangedFrom="0" laneChangedTo="0" flow="71.09"/>
        <edge id="-482708312#0" sampledSeconds="10.86" traveltime="3.24" overlapTraveltime="3.63" density="0.25" overlapDensity="0.28" laneDensity="0.25" occupancy="0.12" waitingTime="0.00" timeLoss="0.43" speed="12.82" speedRelative="0.92" departed="0" arrived="3" entered="3" left="0" laneChangedFrom="0" laneChangedTo="0" flow="11.53"/>
        <edge id="-482708312#1" sampledSeconds="16.30" traveltime="3.60" overlapTraveltime="4.07" density="0.36" overlapDensity="0.40" laneDensity="0.36" occupancy="0.18" waitingTime="0.00" timeLoss="1.80" speed="11.77" speedRelative="0.85" departed="0" arrived="0" entered="4" left="4" laneChangedFrom="0" laneChangedTo="0" flow="15.37"/>
        <edge id="-482708312#2" sampledSeconds="11.44" traveltime="1.00" overlapTraveltime="1.91" density="0.84" overlapDensity="1.61" laneDensity="0.84" occupancy="0.49" waitingTime="0.00" timeLoss="3.68" speed="6.59" speedRelative="0.47" departed="0" arrived="0" entered="6" left="6" laneChangedFrom="0" laneChangedTo="0" flow="23.05"/>
        <edge id="-482708312#3" sampledSeconds="27.25" traveltime="2.88" overlapTraveltime="3.41" density="0.72" overlapDensity="0.85" laneDensity="0.72" occupancy="0.37" waitingTime="0.00" timeLoss="2.58" speed="11.48" speedRelative="0.83" departed="0" arrived="0" entered="8" left="8" laneChangedFrom="0" laneChangedTo="0" flow="30.74"/>
        <edge id="-482708312#4" sampledSeconds="20.52" traveltime="1.09" overlapTraveltime="1.58" density="1.18" overlapDensity="1.71" laneDensity="1.18" occupancy="0.61" waitingTime="0.00" timeLoss="2.18" speed="11.27" speedRelative="0.81" departed="0" arrived="2" entered="13" left="11" laneChangedFrom="0" laneChangedTo="0" flow="49.95"/>
        <edge id="-482708312#5" sampledSeconds="17.17" traveltime="0.37" overlapTraveltime="1.00" density="1.51" overlapDensity="4.42" laneDensity="1.51" occupancy="1.04" waitingTime="0.00" timeLoss="3.41" speed="9.11" speedRelative="0.66" departed="2" arrived="0" entered="16" left="18" laneChangedFrom="0" laneChangedTo="0" flow="61.47"/>
        <edge id="-482708312#6" sampledSeconds="42.38" traveltime="1.92" overlapTraveltime="2.35" density="1.51" overlapDensity="1.85" laneDensity="1.51" occupancy="0.76" waitingTime="0.00" timeLoss="3.19" speed="12.53" speedRelative="0.90" departed="0" arrived="0" entered="18" left="18" laneChangedFrom="0" laneChangedTo="0" flow="69.16"/>
        <edge id="-482708312#7" sampledSeconds="47.45" traveltime="1.86" overlapTraveltime="2.26" density="1.71" overlapDensity="2.08" laneDensity="1.71" occupancy="0.86" waitingTime="0.00" timeLoss="2.13" speed="12.99" speedRelative="0.94" departed="0" arrived="1" entered="21" left="20" laneChangedFrom="0" laneChangedTo="0" flow="80.68"/>
        <edge id="-482708312#8" sampledSeconds="129.54" traveltime="4.98" overlapTraveltime="5.42" density="2.52" overlapDensity="2.74" laneDensity="2.52" occupancy="1.22" waitingTime="0.00" timeLoss="31.95" speed="10.22" speedRelative="0.74" departed="1" arrived="0" entered="23" left="24" laneChangedFrom="0" laneChangedTo="0" flow="91.82"/>
        <edge id="-482708314#0" sampledSeconds="21.25" traveltime="6.57" overlapTraveltime="7.28" density="0.35" overlapDensity="0.39" laneDensity="0.35" occupancy="0.18" waitingTime="0.00" timeLoss="7.00" speed="8.73" speedRelative="0.63" departed="1" arrived="0" entered="2" left="3" laneChangedFrom="0" laneChangedTo="0" flow="11.19"/>
        <edge id="-482708314#1" sampledSeconds="12.63" traveltime="2.73" overlapTraveltime="3.30" density="0.45" overlapDensity="0.55" laneDensity="0.45" occupancy="0.24" waitingTime="0.00" timeLoss="4.55" speed="8.98" speedRelative="0.65" departed="1" arrived="0" entered="3" left="4" laneChangedFrom="0" laneChangedTo="0" flow="14.57"/>
        <edge id="-482708314#2" sampledSeconds="74.10" traveltime="18.05" overlapTraveltime="18.53" density="0.29" overlapDensity="0.30" laneDensity="0.29" occupancy="0.15" waitingTime="0.00" timeLoss="6.53" speed="14.43" speedRelative="1.04" departed="0" arrived="0" entered="4" left="4" laneChangedFrom="0" laneChangedTo="0" flow="15.37"/>
        <edge id="-482708367#0" sampledSeconds="0.00" departed="0" arrived="0" entered="0" left="0" laneChangedFrom="0" laneChangedTo="0"/>
        <edge id="-482708367#1" sampledSeconds="4.22" traveltime="1.25" overlapTraveltime="2.11" density="0.26" overlapDensity="0.43" laneDensity="0.26" occupancy="0.14" waitingTime="0.00" timeLoss="0.84" speed="7.28" speedRelative="0.52" departed="0" arrived="0" entered="2" left="2" laneChangedFrom="0" laneChangedTo="0" flow="7.68"/>
        <edge id="-482708369#0" sampledSeconds="12.61" traveltime="5.89" overlapTraveltime="6.31" density="0.19" overlapDensity="0.20" laneDensity="0.19" occupancy="0.09" waitingTime="0.00" timeLoss="1.32" speed="11.29" speedRelative="0.81" departed="0" arrived="2" entered="2" left="0" laneChangedFrom="0" laneChangedTo="0" flow="7.68"/>
        <edge id="-482708369#1" sampledSeconds="24.51" traveltime="5.51" overlapTraveltime="6.40" density="0.46" overlapDensity="0.53" laneDensity="0.46" occupancy="0.24" waitingTime="0.00" timeLoss="6.92" speed="8.51" speedRelative="0.61" departed="1" arrived="1" entered="3" left="3" laneChangedFrom="0" laneChangedTo="0" flow="14.97"/>
        <edge id="-482708380" sampledSeconds="291.91" traveltime="72.24" overlapTraveltime="73.03" density="0.33" overlapDensity="0.34" laneDensity="0.33" occupancy="0.17" waitingTime="0.00" timeLoss="17.86" speed="12.79" speedRelative="0.92" departed="5" arrived="0" entered="0" left="3" laneChangedFrom="0" laneChangedTo="0" flow="15.38"/>
        <edge id="-489734626#0" sampledSeconds="6.09" traveltime="6.20" overlapTraveltime="6.98" density="0.16" overlapDensity="0.19" laneDensity="0.16" occupancy="0.09" waitingTime="0.00" timeLoss="2.83" speed="5.75" speedRelative="0.41" departed="1" arrived="0" entered="0" left="1" laneChangedFrom="0" laneChangedTo="0" flow="3.28"/>
        <edge id="-489734626#1" sampledSeconds="0.00" departed="0" arrived="0" entered="0" left="0" laneChangedFrom="0" laneChangedTo="0"/>
        <edge id="-489734627#0" sampledSeconds="3.01" traveltime="2.61" overlapTraveltime="3.01" density="0.11" overlapDensity="0.12" laneDensity="0.11" occupancy="0.05" waitingTime="0.00" timeLoss="0.62" speed="10.22" speedRelative="0.74" departed="0" arrived="1" entered="1" left="0" laneChangedFrom="0" laneChangedTo="0" flow="3.84"/>
        <edge id="-489734627#1" sampledSeconds="19.25" traveltime="8.70" overlapTraveltime="9.62" density="0.21" overlapDensity="0.23" laneDensity="0.21" occupancy="0.11" waitingTime="0.00" timeLoss="3.33" speed="9.67" speedRelative="0.70" departed="0" arrived="0" entered="2" left="2" laneChangedFrom="0" laneChangedTo="0" flow="7.68"/>
        <edge id="-489734628" sampledSeconds="8.99" traveltime="8.77" overlapTraveltime="9.44" density="0.09" overlapDensity="0.09" laneDensity="0.09" occupancy="0.04" waitingTime="0.00" timeLoss="1.22" speed="11.52" speedRelative="0.83" departed="1" arrived="0" entered="0" left="1" laneChangedFrom="0" laneChangedTo="0" flow="3.65"/>
        <edge id="-489734629#0" sampledSeconds="7.46" traveltime="1.88" overlapTraveltime="2.49" density="0.39" overlapDensity="0.51" laneDensity="0.39" occupancy="0.20" waitingTime="0.00" timeLoss="2.12" speed="8.24" speedRelative="0.59" departed="0" arrived="1" entered="3" left="2" laneChangedFrom="0" laneChangedTo="0" flow="11.53"/>
        <edge id="-489734629#1" sampledSeconds="5.58" traveltime="2.68" overlapTraveltime="3.15" density="0.28" overlapDensity="0.34" laneDensity="0.28" occupancy="0.13" waitingTime="0.00" timeLoss="2.41" speed="7.12" speedRelative="0.51" departed="1" arrived="0" entered="1" left="2" laneChangedFrom="0" laneChangedTo="0" flow="6.56"/>
        <edge id="-489734630" sampledSeconds="16.85" traveltime="7.43" overlapTraveltime="8.86" density="0.32" overlapDensity="0.39" laneDensity="0.32" occupancy="0.17" waitingTime="0.00" timeLoss="7.18" speed="5.83" speedRelative="0.42" departed="1" arrived="0" entered="1" left="2" laneChangedFrom="0" laneChangedTo="0" flow="7.26"/>
        <edge id="-489734631" sampledSeconds="8.01" traveltime="3.90" overlapTraveltime="4.48" density="0.17" overlapDensity="0.20" laneDensity="0.17" occupancy="0.09" waitingTime="0.00" timeLoss="1.54" speed="10.79" speedRelative="0.78" departed="2" arrived="0" entered="0" left="2" laneChangedFrom="0" laneChangedTo="0" flow="6.78"/>
        <edge id="-489736035" sampledSeconds="0.00" departed="0" arrived="0" entered="0" left="0" laneChangedFrom="0" laneChangedTo="0"/>
        <edge id="-489736036" sampledSeconds="0.00" departed="0" arrived="0" entered="0" left="0" laneChangedFrom="0" laneChangedTo="0"/>
        <edge id="-489736039" sampledSeconds="4.28" traveltime="4.01" overlapTraveltime="4.98" density="0.11" overlapDensity="0.15" laneDensity="0.11" occupancy="0.07" waitingTime="0.00" timeLoss="1.12" speed="7.28" speedRelative="0.52" departed="1" arrived="0" entered="0" left="1" laneChangedFrom="0" laneChangedTo="0" flow="3.22"/>
        <edge id="-489789363#0" sampledSeconds="0.99" traveltime="0.29" overlapTraveltime="0.99" density="0.16" overlapDensity="0.57" laneDensity="0.16" occupancy="0.08" waitingTime="0.00" timeLoss="0.48" speed="6.90" speedRelative="0.50" departed="0" arrived="1" entered="1" left="0" laneChangedFrom="0" laneChangedTo="0" flow="3.84"/>
        <edge id="-489789363#1" sampledSeconds="2.32" traveltime="2.99" overlapTraveltime="3.66" density="0.15" overlapDensity="0.28" laneDensity="0.15" occupancy="0.11" waitingTime="0.00" timeLoss="1.12" speed="3.78" speedRelative="0.27" departed="1" arrived="0" entered="0" left="1" laneChangedFrom="0" laneChangedTo="0" flow="1.63"/>
        <edge id="-489789363#2" sampledSeconds="0.00" departed="0" arrived="0" entered="0" left="0" laneChangedFrom="0" laneChangedTo="0"/>
        <edge id="-489789367#0" sampledSeconds="15.91" traveltime="4.39" overlapTraveltime="5.30" density="0.35" overlapDensity="0.43" laneDensity="0.35" occupancy="0.19" waitingTime="0.00" timeLoss="5.02" speed="8.44" speedRelative="0.61" departed="0" arrived="0" entered="3" left="3" laneChangedFrom="0" laneChangedTo="0" flow="11.53"/>
        <edge id="-489789367#1" sampledSeconds="5.16" traveltime="2.20" overlapTraveltime="2.58" density="0.20" overlapDensity="0.23" laneDensity="0.20" occupancy="0.09" waitingTime="0.00" timeLoss="1.07" speed="11.17" speedRelative="0.80" departed="0" arrived="0" entered="2" left="2" laneChangedFrom="0" laneChangedTo="0" flow="7.68"/>
        <edge id="-489789367#2" sampledSeconds="6.98" traveltime="7.19" overlapTraveltime="7.90" density="0.17" overlapDensity="0.19" laneDensity="0.17" occupancy="0.09" waitingTime="0.00" timeLoss="4.30" speed="5.49" speedRelative="0.40" departed="1" arrived="0" entered="0" left="1" laneChangedFrom="0" laneChangedTo="0" flow="3.33"/>
        <edge id="-489789368#0" sampledSeconds="10.91" traveltime="0.55" overlapTraveltime="0.99" density="1.10" overlapDensity="1.99" laneDensity="1.10" occupancy="0.53" waitingTime="0.00" timeLoss="2.09" speed="10.93" speedRelative="0.79" departed="0" arrived="0" entered="11" left="11" laneChangedFrom="0" laneChangedTo="0" flow="42.26"/>
        <edge id="-489789368#1" sampledSeconds="11.74" traveltime="0.89" overlapTraveltime="1.30" density="0.86" overlapDensity="1.26" laneDensity="0.86" occupancy="0.42" waitingTime="0.00" timeLoss="1.84" speed="11.43" speedRelative="0.82" departed="0" arrived="0" entered="9" left="9" laneChangedFrom="0" laneChangedTo="0" flow="34.58"/>
        <edge id="-489789368#2" sampledSeconds="3.94" traveltime="0.02" overlapTraveltime="0.56" density="0.90" overlapDensity="21.02" laneDensity="0.90" occupancy="0.40" waitingTime="0.00" timeLoss="1.20" speed="9.24" speedRelative="0.67" departed="0" arrived="0" entered="7" left="7" laneChangedFrom="0" laneChangedTo="0" flow="26.89"/>
        <edge id="-489789368#4" sampledSeconds="0.00" departed="0" arrived="0" entered="0" left="0" laneChangedFrom="0" laneChangedTo="0"/>
        <edge id="-489789368#5" sampledSeconds="0.63" traveltime="0.24" overlapTraveltime="0.63" density="0.08" overlapDensity="0.22" laneDensity="0.08" occupancy="0.04" waitingTime="0.00" timeLoss="0.02" speed="12.85" speedRelative="0.92" departed="0" arrived="0" entered="1" left="1" laneChangedFrom="0" laneChangedTo="0" flow="3.84"/>
        <edge id="-489789369" sampledSeconds="18.42" traveltime="2.94" overlapTraveltime="3.64" density="0.83" overlapDensity="1.02" laneDensity="0.83" occupancy="0.40" waitingTime="0.00" timeLoss="9.34" speed="6.66" speedRelative="0.48" departed="0" arrived="0" entered="6" left="5" laneChangedFrom="0" laneChangedTo="0" flow="19.53"/>
        <edge id="-489789371#0" sampledSeconds="0.00" departed="0" arrived="0" entered="0" left="0" laneChangedFrom="0" laneChangedTo="0"/>
        <edge id="-489789371#1" sampledSeconds="1.60" traveltime="0.91" overlapTraveltime="1.60" density="0.19" overlapDensity="0.34" laneDensity="0.19" occupancy="0.08" waitingTime="0.00" timeLoss="0.68" speed="6.23" speedRelative="0.45" departed="0" arrived="0" entered="1" left="1" laneChangedFrom="0" laneChangedTo="0" flow="3.84"/>
        <edge id="-675335735#0" sampledSeconds="23.75" traveltime="4.12" overlapTraveltime="4.91" density="0.78" overlapDensity="0.94" laneDensity="0.78" occupancy="0.40" waitingTime="0.00" timeLoss="9.68" speed="6.52" speedRelative="0.47" departed="1" arrived="0" entered="4" left="5" laneChangedFrom="0" laneChangedTo="0" flow="18.48"/>
        <edge id="-675335735#1" sampledSeconds="12.66" traveltime="5.95" overlapTraveltime="6.33" density="0.19" overlapDensity="0.21" laneDensity="0.19" occupancy="0.09" waitingTime="0.00" timeLoss="2.22" speed="11.11" speedRelative="0.80" departed="0" arrived="1" entered="2" left="1" laneChangedFrom="0" laneChangedTo="0" flow="7.68"/>
        <edge id="-993540870" sampledSeconds="6.77" traveltime="6.30" overlapTraveltime="6.77" density="0.11" overlapDensity="0.11" laneDensity="0.11" occupancy="0.05" waitingTime="0.00" timeLoss="0.96" speed="10.20" speedRelative="0.73" departed="0" arrived="1" entered="1" left="0" laneChangedFrom="0" laneChangedTo="0" flow="3.84"/>
        <edge id="-993540872" sampledSeconds="3.38" traveltime="2.43" overlapTraveltime="3.38" density="0.15" overlapDensity="0.21" laneDensity="0.15" occupancy="0.08" waitingTime="0.00" timeLoss="1.23" speed="6.64" speedRelative="0.48" departed="0" arrived="0" entered="1" left="1" laneChangedFrom="0" laneChangedTo="0" flow="3.84"/>
        <edge id="-993540873" sampledSeconds="41.47" traveltime="6.41" overlapTraveltime="7.11" density="0.73" overlapDensity="0.81" laneDensity="0.73" occupancy="0.37" waitingTime="0.00" timeLoss="15.14" speed="8.39" speedRelative="0.60" departed="2" arrived="0" entered="4" left="6" laneChangedFrom="0" laneChangedTo="0" flow="22.34"/>
        <edge id="1075635027#1" sampledSeconds="14.31" traveltime="1.06" overlapTraveltime="1.43" density="0.76" overlapDensity="1.02" laneDensity="0.38" occupancy="0.19" waitingTime="0.00" timeLoss="4.58" speed="13.97" speedRelative="0.63" departed="0" arrived="0" entered="10" left="10" laneChangedFrom="0" laneChangedTo="0" flow="38.42"/>
        <edge id="1075635027#2" sampledSeconds="279.19" traveltime="25.59" overlapTraveltime="25.83" density="0.55" overlapDensity="0.55" laneDensity="0.28" occupancy="0.14" waitingTime="0.00" timeLoss="15.78" speed="20.98" speedRelative="0.94" departed="0" arrived="10" entered="11" left="0" laneChangedFrom="3" laneChangedTo="3" flow="41.61"/>
        <edge id="1080439104" sampledSeconds="15.05" traveltime="1.39" overlapTraveltime="2.15" density="1.37" overlapDensity="2.12" laneDensity="1.37" occupancy="0.65" waitingTime="0.00" timeLoss="7.16" speed="5.85" speedRelative="0.26" departed="0" arrived="0" entered="7" left="7" laneChangedFrom="0" laneChangedTo="0" flow="26.89"/>
        <edge id="1103359856#0" sampledSeconds="0.00" departed="0" arrived="0" entered="0" left="0" laneChangedFrom="0" laneChangedTo="0"/>
        <edge id="1103359856#1" sampledSeconds="5.23" traveltime="2.06" overlapTraveltime="3.22" density="0.36" overlapDensity="0.65" laneDensity="0.36" occupancy="0.22" waitingTime="0.00" timeLoss="2.46" speed="4.22" speedRelative="0.30" departed="1" arrived="0" entered="1" left="2" laneChangedFrom="0" laneChangedTo="0" flow="5.40"/>
        <edge id="1103359857" sampledSeconds="4.50" traveltime="1.56" overlapTraveltime="2.25" density="0.38" overlapDensity="0.55" laneDensity="0.38" occupancy="0.18" waitingTime="0.00" timeLoss="2.13" speed="6.11" speedRelative="0.44" departed="0" arrived="0" entered="2" left="2" laneChangedFrom="0" laneChangedTo="0" flow="7.68"/>
        <edge id="1103364522" sampledSeconds="19.68" traveltime="6.39" overlapTraveltime="6.81" density="0.29" overlapDensity="0.30" laneDensity="0.29" occupancy="0.14" waitingTime="0.00" timeLoss="3.45" speed="11.17" speedRelative="0.80" departed="0" arrived="3" entered="3" left="0" laneChangedFrom="0" laneChangedTo="0" flow="11.53"/>
        <edge id="1103364532#0" sampledSeconds="12.48" traveltime="11.51" overlapTraveltime="12.48" density="0.10" overlapDensity="0.11" laneDensity="0.10" occupancy="0.05" waitingTime="0.00" timeLoss="1.36" speed="9.80" speedRelative="0.71" departed="0" arrived="0" entered="1" left="1" laneChangedFrom="0" laneChangedTo="0" flow="3.84"/>
        <edge id="1103364532#1" sampledSeconds="0.00" departed="0" arrived="0" entered="0" left="0" laneChangedFrom="0" laneChangedTo="0"/>
        <edge id="1103364533" sampledSeconds="7.61" traveltime="7.14" overlapTraveltime="7.61" density="0.11" overlapDensity="0.11" laneDensity="0.11" occupancy="0.05" waitingTime="0.00" timeLoss="0.94" speed="10.12" speedRelative="0.73" departed="0" arrived="1" entered="1" left="0" laneChangedFrom="0" laneChangedTo="0" flow="3.84"/>
        <edge id="1118363225#1" sampledSeconds="0.00" departed="0" arrived="0" entered="0" left="0" laneChangedFrom="0" laneChangedTo="0"/>
        <edge id="1118363226" sampledSeconds="0.00" departed="0" arrived="0" entered="0" left="0" laneChangedFrom="0" laneChangedTo="0"/>
        <edge id="1118363227" sampledSeconds="0.00" departed="0" arrived="0" entered="0" left="0" laneChangedFrom="0" laneChangedTo="0"/>
        <edge id="1128446074" sampledSeconds="0.00" departed="0" arrived="0" entered="0" left="0" laneChangedFrom="0" laneChangedTo="0"/>
        <edge id="1215820811" sampledSeconds="2.15" traveltime="0.02" overlapTraveltime="0.54" density="0.45" overlapDensity="11.48" laneDensity="0.22" occupancy="0.11" waitingTime="0.00" timeLoss="0.80" speed="9.67" speedRelative="0.44" departed="0" arrived="0" entered="4" left="4" laneChangedFrom="0" laneChangedTo="0" flow="15.37"/>
        <edge id="1215820812" sampledSeconds="23.88" traveltime="0.03" overlapTraveltime="0.68" density="4.87" overlapDensity="127.42" laneDensity="2.43" occupancy="1.23" waitingTime="0.00" timeLoss="3.85" speed="7.62" speedRelative="0.34" departed="0" arrived="2" entered="35" left="33" laneChangedFrom="0" laneChangedTo="0" flow="134.41"/>
        <edge id="1216415336" sampledSeconds="10.81" traveltime="1.55" overlapTraveltime="2.34" density="0.87" overlapDensity="1.38" laneDensity="0.43" occupancy="0.23" waitingTime="0.00" timeLoss="4.29" speed="5.70" speedRelative="0.34" departed="1" arrived="0" entered="4" left="5" laneChangedFrom="0" laneChangedTo="0" flow="16.86"/>
        <edge id="1216417435" sampledSeconds="301.47" traveltime="100.36" overlapTraveltime="100.55" density="0.13" overlapDensity="0.13" laneDensity="0.13" occupancy="0.06" waitingTime="0.00" timeLoss="11.62" speed="24.73" speedRelative="0.89" departed="0" arrived="3" entered="3" left="0" laneChangedFrom="0" laneChangedTo="0" flow="11.53"/>
        <edge id="1258954094#0" sampledSeconds="6.89" traveltime="3.45" overlapTraveltime="3.64" density="0.08" overlapDensity="0.08" laneDensity="0.08" occupancy="0.04" waitingTime="0.00" timeLoss="0.16" speed="26.18" speedRelative="0.94" departed="2" arrived="0" entered="0" left="2" laneChangedFrom="0" laneChangedTo="0" flow="7.25"/>
        <edge id="1258954094#1" sampledSeconds="32.49" traveltime="10.12" overlapTraveltime="10.83" density="0.17" overlapDensity="0.18" laneDensity="0.17" occupancy="0.08" waitingTime="0.00" timeLoss="8.70" speed="18.51" speedRelative="0.67" departed="0" arrived="1" entered="3" left="2" laneChangedFrom="0" laneChangedTo="0" flow="11.53"/>
        <edge id="1258954094#2" sampledSeconds="3.92" traveltime="4.25" overlapTraveltime="5.06" density="0.18" overlapDensity="0.24" laneDensity="0.18" occupancy="0.10" waitingTime="0.00" timeLoss="2.56" speed="4.49" speedRelative="0.16" departed="1" arrived="0" entered="0" left="1" laneChangedFrom="0" laneChangedTo="0" flow="2.73"/>
        <edge id="138959009" sampledSeconds="81.51" traveltime="81.51" overlapTraveltime="81.68" density="0.04" overlapDensity="0.04" laneDensity="0.02" occupancy="0.01" waitingTime="0.00" timeLoss="1.86" speed="29.50" speedRelative="1.06" departed="1" arrived="1" entered="0" left="0" laneChangedFrom="0" laneChangedTo="0" flow="3.83"/>
        <edge id="138959048#0" sampledSeconds="33.33" traveltime="3.32" overlapTraveltime="3.75" density="0.77" overlapDensity="0.87" laneDensity="0.77" occupancy="0.39" waitingTime="0.00" timeLoss="15.41" speed="12.26" speedRelative="0.55" departed="1" arrived="0" entered="8" left="9" laneChangedFrom="0" laneChangedTo="0" flow="34.10"/>
        <edge id="138959048#1" sampledSeconds="15.82" traveltime="1.61" overlapTraveltime="1.98" density="0.57" overlapDensity="0.69" laneDensity="0.57" occupancy="0.29" waitingTime="0.00" timeLoss="3.84" speed="14.84" speedRelative="0.67" departed="0" arrived="1" entered="8" left="7" laneChangedFrom="0" laneChangedTo="0" flow="30.74"/>
        <edge id="138959048#2" sampledSeconds="220.91" traveltime="51.59" overlapTraveltime="51.83" density="0.22" overlapDensity="0.22" laneDensity="0.22" occupancy="0.11" waitingTime="0.00" timeLoss="8.84" speed="20.91" speedRelative="0.94" departed="0" arrived="4" entered="5" left="0" laneChangedFrom="0" laneChangedTo="0" flow="16.41"/>
        <edge id="331637295#0" sampledSeconds="57.21" traveltime="8.99" overlapTraveltime="9.56" density="0.54" overlapDensity="0.57" laneDensity="0.54" occupancy="0.27" waitingTime="0.00" timeLoss="9.86" speed="11.76" speedRelative="0.85" departed="0" arrived="2" entered="6" left="4" laneChangedFrom="0" laneChangedTo="0" flow="23.05"/>
        <edge id="331637295#1" sampledSeconds="5.26" traveltime="4.38" overlapTraveltime="5.26" density="0.10" overlapDensity="0.13" laneDensity="0.10" occupancy="0.06" waitingTime="0.00" timeLoss="1.13" speed="9.46" speedRelative="0.68" departed="0" arrived="0" entered="1" left="1" laneChangedFrom="0" laneChangedTo="0" flow="3.84"/>
        <edge id="336852291#0" sampledSeconds="293.68" traveltime="36.71" overlapTraveltime="37.04" density="0.54" overlapDensity="0.54" laneDensity="0.27" occupancy="0.14" waitingTime="0.00" timeLoss="11.56" speed="15.69" speedRelative="0.94" departed="8" arrived="0" entered="0" left="8" laneChangedFrom="6" laneChangedTo="6" flow="30.46"/>
        <edge id="336852291#1" sampledSeconds="18.49" traveltime="1.86" overlapTraveltime="2.31" density="0.69" overlapDensity="0.85" laneDensity="0.34" occupancy="0.18" waitingTime="0.00" timeLoss="3.78" speed="12.15" speedRelative="0.73" departed="0" arrived="0" entered="8" left="8" laneChangedFrom="0" laneChangedTo="0" flow="30.74"/>