<?xml version="1.0" encoding="UTF-8"?>

<!-- generated on 2026-02-25T00:09:49.334002+05:30 by Eclipse SUMO GUI 1.26.0
<sumoConfiguration xmlns:xsi="http://www.w3.org/2001/XMLSchema-instance" xsi:noNamespaceSchemaLocation="http://sumo.dlr.de/xsd/sumoConfiguration.xsd">

    <input>
        <net-file value="C:\Users\aksha\OneDrive\Desktop\TrafficFlow_Project\2026-02-25-00-09-38\osm.net.xml.gz"/>
        <route-files value="C:\Users\aksha\OneDrive\Desktop\TrafficFlow_Project\2026-02-25-00-09-38\osm.passenger.trips.xml"/>
        <additional-files value="C:\Users\aksha\OneDrive\Desktop\TrafficFlow_Project\2026-02-25-00-09-38\osm.poly.xml.gz,C:\Users\aksha\OneDrive\Desktop\TrafficFlow_Project\2026-02-25-00-09-38\output.add.xml"/>
    </input>

    <output>
        <tripinfo-output value="C:\Users\aksha\OneDrive\Desktop\TrafficFlow_Project\2026-02-25-00-09-38\tripinfos.xml"/>
        <statistic-output value="C:\Users\aksha\OneDrive\Desktop\TrafficFlow_Project\2026-02-25-00-09-38\stats.xml"/>
    </output>

    <processing>
        <ignore-route-errors value="true"/>
        <tls.actuated.jam-threshold value="30"/>
    </processing>

    <routing>
        <device.rerouting.adaptation-steps value="18"/>
        <device.rerouting.adaptation-interval value="10"/>
    </routing>

    <report>
        <verbose value="true"/>
        <duration-log.statistics value="true"/>
        <no-step-log value="true"/>
    </report>

    <gui_only>
        <gui-settings-file value="C:\Users\aksha\OneDrive\Desktop\TrafficFlow_Project\2026-02-25-00-09-38\osm.view.xml"/>
    </gui_only>

</sumoConfiguration>
-->

<tripinfos xmlns:xsi="http://www.w3.org/2001/XMLSchema-instance" xsi:noNamespaceSchemaLocation="http://sumo.dlr.de/xsd/tripinfo_file.xsd">
    <tripinfo id="veh0" depart="0.00" departLane="502034846#1_0" departPos="5.10" departSpeed="0.00" departDelay="0.00" arrival="43.00" arrivalLane="-482708312#0_0" arrivalPos="41.51" arrivalSpeed="14.30" duration="43.00" routeLength="551.65" waitingTime="0.00" waitingCount="0" stopTime="0.00" timeLoss="10.20" rerouteNo="1" devices="tripinfo_veh0 routing_veh0" vType="veh_passenger" speedFactor="1.06" vaporized=""/>
    <tripinfo id="veh3" depart="33.00" departLane="-489734631_0" departPos="5.10" departSpeed="15.04" departDelay="0.91" arrival="75.00" arrivalLane="502034846#4_0" arrivalPos="497.62" arrivalSpeed="28.80" duration="42.00" routeLength="765.56" waitingTime="0.00" waitingCount="0" stopTime="0.00" timeLoss="9.07" rerouteNo="1" devices="tripinfo_veh3 routing_veh3" vType="veh_passenger" speedFactor="1.08" vaporized=""/>
    <tripinfo id="veh2" depart="22.00" departLane="-489734628_0" departPos="5.10" departSpeed="14.03" departDelay="0.61" arrival="92.00" arrivalLane="1075635027#2_0" arrivalPos="536.96" arrivalSpeed="21.76" duration="70.00" routeLength="1057.44" waitingTime="0.00" waitingCount="0" stopTime="0.00" timeLoss="10.90" rerouteNo="1" devices="tripinfo_veh2 routing_veh2" vType="veh_passenger" speedFactor="1.01" vaporized=""/>
    <tripinfo id="veh1" depart="11.00" departLane="-489789363#1_0" departPos="5.10" departSpeed="0.00" departDelay="0.30" arrival="98.00" arrivalLane="-482708369#0_0" arrivalPos="66.20" arrivalSpeed="12.33" duration="87.00" routeLength="899.24" waitingTime="0.00" waitingCount="0" stopTime="0.00" timeLoss="22.72" rerouteNo="1" devices="tripinfo_veh1 routing_veh1" vType="veh_passenger" speedFactor="0.94" vaporized=""/>
    <tripinfo id="veh4" depart="43.00" departLane="-482708314#1_0" departPos="5.10" departSpeed="0.00" departDelay="0.21" arrival="99.00" arrivalLane="489736035_0" arrivalPos="70.84" arrivalSpeed="13.11" duration="56.00" routeLength="487.21" waitingTime="0.00" waitingCount="0" stopTime="0.00" timeLoss="17.06" rerouteNo="1" devices="tripinfo_veh4 routing_veh4" vType="veh_passenger" speedFactor="1.03" vaporized=""/>
    <tripinfo id="veh6" depart="65.00" departLane="489789371#1_0" departPos="4.99" departSpeed="0.00" departDelay="0.82" arrival="116.00" arrivalLane="489736039_0" arrivalPos="34.42" arrivalSpeed="14.22" duration="51.00" routeLength="650.23" waitingTime="0.00" waitingCount="0" stopTime="0.00" timeLoss="16.56" rerouteNo="1" devices="tripinfo_veh6 routing_veh6" vType="veh_passenger" speedFactor="1.05" vaporized=""/>
    <tripinfo id="veh5" depart="60.00" departLane="-482708312#8_0" departPos="5.10" departSpeed="0.00" departDelay="6.51" arrival="121.00" arrivalLane="1103364533_0" arrivalPos="72.02" arrivalSpeed="10.74" duration="61.00" routeLength="525.00" waitingTime="0.00" waitingCount="0" stopTime="0.00" timeLoss="13.36" rerouteNo="1" devices="tripinfo_veh5 routing_veh5" vType="veh_passenger" speedFactor="0.83" vaporized=""/>
    <tripinfo id="veh7" depart="75.00" departLane="-489734626#0_0" departPos="5.10" departSpeed="0.00" departDelay="0.12" arrival="150.00" arrivalLane="502034846#4_0" arrivalPos="497.62" arrivalSpeed="23.97" duration="75.00" routeLength="1043.36" waitingTime="0.00" waitingCount="0" stopTime="0.00" timeLoss="12.16" rerouteNo="1" devices="tripinfo_veh7 routing_veh7" vType="veh_passenger" speedFactor="0.89" vaporized=""/>
    <tripinfo id="veh13" depart="140.00" departLane="482708312#3_0" departPos="5.10" departSpeed="0.00" departDelay="0.93" arrival="178.00" arrivalLane="331637295#0_0" arrivalPos="107.44" arrivalSpeed="14.39" duration="38.00" routeLength="448.36" waitingTime="0.00" waitingCount="0" stopTime="0.00" timeLoss="11.45" rerouteNo="1" devices="tripinfo_veh13 routing_veh13" vType="veh_passenger" speedFactor="1.12" vaporized=""/>
    <tripinfo id="veh9" depart="97.00" departLane="336852291#0_0" departPos="5.10" departSpeed="14.28" departDelay="0.72" arrival="179.00" arrivalLane="502034846#2_0" arrivalPos="161.95" arrivalSpeed="23.21" duration="82.00" routeLength="1094.66" waitingTime="0.00" waitingCount="0" stopTime="0.00" timeLoss="8.11" rerouteNo="1" devices="tripinfo_veh9 routing_veh9" vType="veh_passenger" speedFactor="0.86" vaporized=""/>
    <tripinfo id="veh10" depart="107.00" departLane="-138959048#2_0" departPos="5.10" departSpeed="24.24" departDelay="0.03" arrival="183.00" arrivalLane="482708369#0_0" arrivalPos="66.75" arrivalSpeed="14.05" duration="76.00" routeLength="1426.28" waitingTime="0.00" waitingCount="0" stopTime="0.00" timeLoss="7.17" rerouteNo="1" devices="tripinfo_veh10 routing_veh10" vType="veh_passenger" speedFactor="1.09" vaporized=""/>
    <tripinfo id="veh12" depart="129.00" departLane="-1103359857_0" departPos="5.10" departSpeed="0.00" departDelay="0.63" arrival="183.00" arrivalLane="489734631_0" arrivalPos="43.06" arrivalSpeed="13.34" duration="54.00" routeLength="573.28" waitingTime="0.00" waitingCount="0" stopTime="0.00" timeLoss="18.35" rerouteNo="1" devices="tripinfo_veh12 routing_veh12" vType="veh_passenger" speedFactor="1.05" vaporized=""/>
    <tripinfo id="veh11" depart="118.00" departLane="993540870_0" departPos="5.10" departSpeed="0.00" departDelay="0.33" arrival="216.00" arrivalLane="138959048#2_0" arrivalPos="1079.01" arrivalSpeed="21.99" duration="98.00" routeLength="1585.97" waitingTime="0.00" waitingCount="0" stopTime="0.00" timeLoss="12.96" rerouteNo="1" devices="tripinfo_veh11 routing_veh11" vType="veh_passenger" speedFactor="1.03" vaporized=""/>
    <tripinfo id="veh14" depart="150.00" departLane="-138959048#2_0" departPos="5.10" departSpeed="22.02" departDelay="0.24" arrival="216.00" arrivalLane="1215820812_0" arrivalPos="0.20" arrivalSpeed="12.89" duration="66.00" routeLength="1241.32" waitingTime="0.00" waitingCount="0" stopTime="0.00" timeLoss="8.23" rerouteNo="1" devices="tripinfo_veh14 routing_veh14" vType="veh_passenger" speedFactor="0.99" vaporized=""/>
    <tripinfo id="veh15" depart="161.00" departLane="1258954094#0_0" departPos="5.10" departSpeed="25.75" departDelay="0.54" arrival="225.00" arrivalLane="-489734627#0_0" arrivalPos="25.74" arrivalSpeed="12.71" duration="64.00" routeLength="830.34" waitingTime="0.00" waitingCount="0" stopTime="0.00" timeLoss="13.55" rerouteNo="1" devices="tripinfo_veh15 routing_veh15" vType="veh_passenger" speedFactor="0.93" vaporized=""/>
    <tripinfo id="veh8" depart="86.00" departLane="675335735#0_0" departPos="5.10" departSpeed="0.00" departDelay="0.42" arrival="233.00" arrivalLane="1216417435_0" arrivalPos="2481.70" arrivalSpeed="25.81" duration="147.00" routeLength="2809.42" waitingTime="0.00" waitingCount="0" stopTime="0.00" timeLoss="22.25" rerouteNo="1" devices="tripinfo_veh8 routing_veh8" vType="veh_passenger" speedFactor="0.94" vaporized=""/>
    <tripinfo id="veh18" depart="193.00" departLane="-1103364522_0" departPos="5.10" departSpeed="13.00" departDelay="0.45" arrival="248.00" arrivalLane="502034846#4_0" arrivalPos="497.62" arrivalSpeed="24.97" duration="55.00" routeLength="877.75" waitingTime="0.00" waitingCount="0" stopTime="0.00" timeLoss="8.61" rerouteNo="1" devices="tripinfo_veh18 routing_veh18" vType="veh_passenger" speedFactor="0.94" vaporized=""/>
    <tripinfo id="veh19" depart="204.00" departLane="489789363#0_0" departPos="1.86" departSpeed="12.30" departDelay="0.75" arrival="252.00" arrivalLane="-482708312#7_0" arrivalPos="24.35" arrivalSpeed="16.07" duration="48.00" routeLength="575.24" waitingTime="0.00" waitingCount="0" stopTime="0.00" timeLoss="17.07" rerouteNo="1" devices="tripinfo_veh19 routing_veh19" vType="veh_passenger" speedFactor="1.16" vaporized=""/>
    <tripinfo id="veh16" depart="172.00" departLane="336852291#0_1" departPos="5.10" departSpeed="14.64" departDelay="0.84" arrival="257.00" arrivalLane="-482708369#0_0" arrivalPos="66.20" arrivalSpeed="11.46" duration="85.00" routeLength="1053.71" waitingTime="0.00" waitingCount="0" stopTime="0.00" timeLoss="7.17" rerouteNo="1" devices="tripinfo_veh16 routing_veh16" vType="veh_passenger" speedFactor="0.88" vaporized=""/>
    <tripinfo id="veh22" depart="236.00" departLane="755788739#0_1" departPos="5.10" departSpeed="21.66" departDelay="0.66" arrival="264.00" arrivalLane="438370027#0_0" arrivalPos="20.49" arrivalSpeed="10.23" duration="28.00" routeLength="500.62" waitingTime="0.00" waitingCount="0" stopTime="0.00" timeLoss="3.57" rerouteNo="1" devices="tripinfo_veh22 routing_veh22" vType="veh_passenger" speedFactor="0.97" vaporized=""/>
    <tripinfo id="veh17" depart="182.00" departLane="489789363#0_0" departPos="1.86" departSpeed="12.30" departDelay="0.14" arrival="270.00" arrivalLane="138959048#2_0" arrivalPos="1079.01" arrivalSpeed="20.26" duration="88.00" routeLength="1425.67" waitingTime="0.00" waitingCount="0" stopTime="0.00" timeLoss="12.32" rerouteNo="1" devices="tripinfo_veh17 routing_veh17" vType="veh_passenger" speedFactor="0.94" vaporized=""/>
    <tripinfo id="veh21" depart="225.00" departLane="1103359856#1_0" departPos="5.10" departSpeed="0.00" departDelay="0.35" arrival="303.00" arrivalLane="138959048#2_0" arrivalPos="1079.01" arrivalSpeed="21.16" duration="78.00" routeLength="1356.88" waitingTime="0.00" waitingCount="0" stopTime="0.00" timeLoss="12.44" rerouteNo="1" devices="tripinfo_veh21 routing_veh21" vType="veh_passenger" speedFactor="1.01" vaporized=""/>
    <tripinfo id="veh23" depart="247.00" departLane="489789367#0_0" departPos="5.10" departSpeed="0.00" departDelay="0.96" arrival="316.00" arrivalLane="-489734629#0_0" arrivalPos="15.51" arrivalSpeed="11.29" duration="69.00" routeLength="586.68" waitingTime="1.00" waitingCount="1" stopTime="0.00" timeLoss="26.34" rerouteNo="1" devices="tripinfo_veh23 routing_veh23" vType="veh_passenger" speedFactor="0.89" vaporized=""/>
    <tripinfo id="veh26" depart="279.00" departLane="-489734629#1_0" departPos="5.10" departSpeed="12.74" departDelay="0.87" arrival="321.00" arrivalLane="502034846#4_0" arrivalPos="497.62" arrivalSpeed="24.84" duration="42.00" routeLength="729.14" waitingTime="0.00" waitingCount="0" stopTime="0.00" timeLoss="7.24" rerouteNo="1" devices="tripinfo_veh26 routing_veh26" vType="veh_passenger" speedFactor="0.92" vaporized=""/>
    <tripinfo id="veh24" depart="263.00" departLane="755788739#4_1" departPos="5.10" departSpeed="0.00" departDelay="6.26" arrival="326.00" arrivalLane="-482708312#0_0" arrivalPos="41.51" arrivalSpeed="10.91" duration="63.00" routeLength="673.67" waitingTime="0.00" waitingCount="0" stopTime="0.00" timeLoss="13.43" rerouteNo="1" devices="tripinfo_veh24 routing_veh24" vType="veh_passenger" speedFactor="0.83" vaporized=""/>
    <tripinfo id="veh20" depart="214.00" departLane="-482708380_0" departPos="5.10" departSpeed="14.14" departDelay="0.05" arrival="327.00" arrivalLane="1075635027#2_0" arrivalPos="536.96" arrivalSpeed="22.46" duration="113.00" routeLength="1619.87" waitingTime="0.00" waitingCount="0" stopTime="0.00" timeLoss="14.01" rerouteNo="1" devices="tripinfo_veh20 routing_veh20" vType="veh_passenger" speedFactor="1.02" vaporized=""/>
    <tripinfo id="veh27" depart="289.00" departLane="755788739#2_1" departPos="5.10" departSpeed="0.00" departDelay="0.17" arrival="338.00" arrivalLane="502034846#4_0" arrivalPos="497.62" arrivalSpeed="25.60" duration="49.00" routeLength="975.07" waitingTime="0.00" waitingCount="0" stopTime="0.00" timeLoss="9.33" rerouteNo="1" devices="tripinfo_veh27 routing_veh27" vType="veh_passenger" speedFactor="0.95" vaporized=""/>
    <tripinfo id="veh28" depart="300.00" departLane="755788739#1_0" departPos="5.10" departSpeed="0.00" departDelay="0.47" arrival="357.00" arrivalLane="993540870_0" arrivalPos="63.98" arrivalSpeed="14.44" duration="57.00" routeLength="672.99" waitingTime="0.00" waitingCount="0" stopTime="0.00" timeLoss="15.94" rerouteNo="1" devices="tripinfo_veh28 routing_veh28" vType="veh_passenger" speedFactor="1.13" vaporized=""/>
    <tripinfo id="veh30" depart="321.00" departLane="755788739#2_0" departPos="5.10" departSpeed="0.00" departDelay="0.08" arrival="374.00" arrivalLane="482708312#1_0" arrivalPos="42.97" arrivalSpeed="15.01" duration="53.00" routeLength="651.23" waitingTime="0.00" waitingCount="0" stopTime="0.00" timeLoss="15.00" rerouteNo="1" devices="tripinfo_veh30 routing_veh30" vType="veh_passenger" speedFactor="1.18" vaporized=""/>
    <tripinfo id="veh29" depart="311.00" departLane="-482708312#5_0" departPos="4.15" departSpeed="0.00" departDelay="0.77" arrival="376.00" arrivalLane="1075635027#2_0" arrivalPos="536.96" arrivalSpeed="20.65" duration="65.00" routeLength="889.00" waitingTime="0.00" waitingCount="0" stopTime="0.00" timeLoss="11.21" rerouteNo="1" devices="tripinfo_veh29 routing_veh29" vType="veh_passenger" speedFactor="0.93" vaporized=""/>
    <tripinfo id="veh31" depart="332.00" departLane="336852291#0_1" departPos="5.10" departSpeed="19.24" departDelay="0.38" arrival="387.00" arrivalLane="489734628_0" arrivalPos="104.14" arrivalSpeed="15.65" duration="55.00" routeLength="855.01" waitingTime="0.00" waitingCount="0" stopTime="0.00" timeLoss="6.43" rerouteNo="1" devices="tripinfo_veh31 routing_veh31" vType="veh_passenger" speedFactor="1.15" vaporized=""/>
    <tripinfo id="veh34" depart="364.00" departLane="1258954094#2_0" departPos="5.10" departSpeed="0.00" departDelay="0.29" arrival="405.00" arrivalLane="502034846#4_0" arrivalPos="497.62" arrivalSpeed="27.02" duration="41.00" routeLength="840.12" waitingTime="0.00" waitingCount="0" stopTime="0.00" timeLoss="8.28" rerouteNo="1" devices="tripinfo_veh34 routing_veh34" vType="veh_passenger" speedFactor="0.99" vaporized=""/>
    <tripinfo id="veh32" depart="343.00" departLane="336852291#0_1" departPos="5.10" departSpeed="16.76" departDelay="0.68" arrival="408.00" arrivalLane="482708367#0_0" arrivalPos="128.83" arrivalSpeed="12.86" duration="65.00" routeLength="898.50" waitingTime="0.00" waitingCount="0" stopTime="0.00" timeLoss="6.99" rerouteNo="1" devices="tripinfo_veh32 routing_veh32" vType="veh_passenger" speedFactor="1.01" vaporized=""/>
    <tripinfo id="veh33" depart="354.00" departLane="-993540873_0" departPos="5.10" departSpeed="0.00" departDelay="0.98" arrival="411.00" arrivalLane="482708312#2_0" arrivalPos="7.57" arrivalSpeed="6.89" duration="57.00" routeLength="669.27" waitingTime="0.00" waitingCount="0" stopTime="0.00" timeLoss="21.19" rerouteNo="1" devices="tripinfo_veh33 routing_veh33" vType="veh_passenger" speedFactor="1.17" vaporized=""/>
    <tripinfo id="veh25" depart="268.00" departLane="-482708369#1_0" departPos="5.10" departSpeed="0.00" departDelay="0.56" arrival="418.00" arrivalLane="1216417435_0" arrivalPos="2481.70" arrivalSpeed="24.00" duration="150.00" routeLength="2795.82" waitingTime="0.00" waitingCount="0" stopTime="0.00" timeLoss="18.86" rerouteNo="1" devices="tripinfo_veh25 routing_veh25" vType="veh_passenger" speedFactor="0.87" vaporized=""/>
    <tripinfo id="veh38" depart="407.00" departLane="-489734630_0" departPos="5.10" departSpeed="0.00" departDelay="0.50" arrival="460.00" arrivalLane="502034846#4_0" arrivalPos="497.62" arrivalSpeed="29.93" duration="53.00" routeLength="809.81" waitingTime="0.00" waitingCount="0" stopTime="0.00" timeLoss="16.79" rerouteNo="1" devices="tripinfo_veh38 routing_veh38" vType="veh_passenger" speedFactor="1.10" vaporized=""/>
    <tripinfo id="veh36" depart="386.00" departLane="482708312#1_0" departPos="5.10" departSpeed="0.00" departDelay="0.89" arrival="461.00" arrivalLane="1075635027#2_0" arrivalPos="536.96" arrivalSpeed="20.54" duration="75.00" routeLength="1113.13" waitingTime="0.00" waitingCount="0" stopTime="0.00" timeLoss="10.08" rerouteNo="1" devices="tripinfo_veh36 routing_veh36" vType="veh_passenger" speedFactor="0.97" vaporized=""/>
    <tripinfo id="veh37" depart="396.00" departLane="993540872_0" departPos="5.10" departSpeed="0.00" departDelay="0.20" arrival="462.00" arrivalLane="993540870_0" arrivalPos="63.98" arrivalSpeed="15.23" duration="66.00" routeLength="746.75" waitingTime="0.00" waitingCount="0" stopTime="0.00" timeLoss="20.15" rerouteNo="1" devices="tripinfo_veh37 routing_veh37" vType="veh_passenger" speedFactor="1.18" vaporized=""/>
    <tripinfo id="veh35" depart="375.00" departLane="-482708380_0" departPos="5.10" departSpeed="14.16" departDelay="0.59" arrival="489.00" arrivalLane="489734631_0" arrivalPos="43.06" arrivalSpeed="13.14" duration="114.00" routeLength="1467.64" waitingTime="0.00" waitingCount="0" stopTime="0.00" timeLoss="18.39" rerouteNo="1" devices="tripinfo_veh35 routing_veh35" vType="veh_passenger" speedFactor="1.02" vaporized=""/>
    <tripinfo id="veh42" depart="450.00" departLane="489789368#0_0" departPos="5.10" departSpeed="0.00" departDelay="0.71" arrival="497.00" arrivalLane="1075635027#2_0" arrivalPos="536.96" arrivalSpeed="23.05" duration="47.00" routeLength="718.13" waitingTime="0.00" waitingCount="0" stopTime="0.00" timeLoss="12.06" rerouteNo="1" devices="tripinfo_veh42 routing_veh42" vType="veh_passenger" speedFactor="1.09" vaporized=""/>
    <tripinfo id="veh40" depart="428.00" departLane="-489789367#2_0" departPos="5.10" departSpeed="0.00" departDelay="0.10" arrival="502.00" arrivalLane="-482708369#1_0" arrivalPos="49.51" arrivalSpeed="14.17" duration="74.00" routeLength="824.18" waitingTime="0.00" waitingCount="0" stopTime="0.00" timeLoss="22.48" rerouteNo="1" devices="tripinfo_veh40 routing_veh40" vType="veh_passenger" speedFactor="1.03" vaporized=""/>
    <tripinfo id="veh41" depart="439.00" departLane="336852291#0_0" departPos="5.10" departSpeed="15.95" departDelay="0.41" arrival="505.00" arrivalLane="755788739#5_0" arrivalPos="10.37" arrivalSpeed="9.72" duration="66.00" routeLength="898.91" waitingTime="0.00" waitingCount="0" stopTime="0.00" timeLoss="9.19" rerouteNo="1" devices="tripinfo_veh41 routing_veh41" vType="veh_passenger" speedFactor="0.96" vaporized=""/>
    <tripinfo id="veh46" depart="493.00" departLane="1216415336_1" departPos="5.10" departSpeed="0.00" departDelay="0.92" arrival="514.00" arrivalLane="502034846#3_0" arrivalPos="100.18" arrivalSpeed="27.23" duration="21.00" routeLength="362.11" waitingTime="0.00" waitingCount="0" stopTime="0.00" timeLoss="5.15" rerouteNo="1" devices="tripinfo_veh46 routing_veh46" vType="veh_passenger" speedFactor="1.00" vaporized=""/>
    <tripinfo id="veh43" depart="460.00" departLane="482708312#0_0" departPos="5.10" departSpeed="14.42" departDelay="0.01" arrival="515.00" arrivalLane="502034846#4_0" arrivalPos="497.62" arrivalSpeed="28.51" duration="55.00" routeLength="977.31" waitingTime="0.00" waitingCount="0" stopTime="0.00" timeLoss="7.96" rerouteNo="1" devices="tripinfo_veh43 routing_veh43" vType="veh_passenger" speedFactor="1.04" vaporized=""/>
    <tripinfo id="veh44" depart="471.00" departLane="-438370027#0_0" departPos="5.10" departSpeed="0.00" departDelay="0.31" arrival="515.00" arrivalLane="-482708312#4_0" arrivalPos="12.78" arrivalSpeed="14.40" duration="44.00" routeLength="517.77" waitingTime="0.00" waitingCount="0" stopTime="0.00" timeLoss="14.44" rerouteNo="1" devices="tripinfo_veh44 routing_veh44" vType="veh_passenger" speedFactor="1.04" vaporized=""/>
    <tripinfo id="veh39" depart="418.00" departLane="502026808_0" departPos="5.10" departSpeed="25.02" departDelay="0.80" arrival="521.00" arrivalLane="502026808_0" arrivalPos="2496.54" arrivalSpeed="24.39" duration="103.00" routeLength="2491.44" waitingTime="0.00" waitingCount="0" stopTime="0.00" timeLoss="2.60" rerouteNo="1" devices="tripinfo_veh39 routing_veh39" vType="veh_passenger" speedFactor="0.90" vaporized=""/>
    <tripinfo id="veh45" depart="482.00" departLane="-138959048#2_0" departPos="5.10" departSpeed="24.18" departDelay="0.62" arrival="561.00" arrivalLane="336852291#2_1" arrivalPos="20.30" arrivalSpeed="10.39" duration="79.00" routeLength="1509.14" waitingTime="0.00" waitingCount="0" stopTime="0.00" timeLoss="14.24" rerouteNo="1" devices="tripinfo_veh45 routing_veh45" vType="veh_passenger" speedFactor="1.09" vaporized=""/>
    <tripinfo id="veh48" depart="514.00" departLane="-482708312#5_0" departPos="4.15" departSpeed="0.00" departDelay="0.52" arrival="564.00" arrivalLane="502034846#4_0" arrivalPos="497.62" arrivalSpeed="23.60" duration="50.00" routeLength="774.99" waitingTime="0.00" waitingCount="0" stopTime="0.00" timeLoss="9.39" rerouteNo="1" devices="tripinfo_veh48 routing_veh48" vType="veh_passenger" speedFactor="0.88" vaporized=""/>
    <tripinfo id="veh49" depart="525.00" departLane="-489736039_0" departPos="5.10" departSpeed="11.81" departDelay="0.83" arrival="569.00" arrivalLane="502034846#4_1" arrivalPos="497.62" arrivalSpeed="23.39" duration="44.00" routeLength="649.65" waitingTime="0.00" waitingCount="0" stopTime="0.00" timeLoss="8.37" rerouteNo="1" devices="tripinfo_veh49 routing_veh49" vType="veh_passenger" speedFactor="0.85" vaporized=""/>
    <tripinfo id="veh47" depart="503.00" departLane="489789369_0" departPos="5.10" departSpeed="0.00" departDelay="0.22" arrival="577.00" arrivalLane="482708312#2_0" arrivalPos="7.57" arrivalSpeed="5.06" duration="74.00" routeLength="723.93" waitingTime="0.00" waitingCount="0" stopTime="0.00" timeLoss="21.96" rerouteNo="1" devices="tripinfo_veh47 routing_veh47" vType="veh_passenger" speedFactor="0.90" vaporized=""/>
    <tripinfo id="veh52" depart="558.00" departLane="755788739#4_1" departPos="5.10" departSpeed="0.00" departDelay="1.73" arrival="597.00" arrivalLane="331637295#0_0" arrivalPos="107.44" arrivalSpeed="12.94" duration="39.00" routeLength="539.23" waitingTime="0.00" waitingCount="0" stopTime="0.00" timeLoss="12.88" rerouteNo="1" devices="tripinfo_veh52 routing_veh52" vType="veh_passenger" speedFactor="1.02" vaporized=""/>
    <tripinfo id="veh50" depart="535.00" departLane="489789367#1_0" departPos="5.10" departSpeed="0.00" departDelay="0.13" arrival="615.00" arrivalLane="-993540870_0" arrivalPos="64.02" arrivalSpeed="10.72" duration="80.00" routeLength="768.77" waitingTime="0.00" waitingCount="0" stopTime="0.00" timeLoss="20.38" rerouteNo="1" devices="tripinfo_veh50 routing_veh50" vType="veh_passenger" speedFactor="0.85" vaporized=""/>
    <tripinfo id="veh53" depart="567.00" departLane="755788739#0_1" departPos="5.10" departSpeed="24.35" departDelay="0.04" arrival="624.00" arrivalLane="-482708312#4_0" arrivalPos="12.78" arrivalSpeed="14.82" duration="57.00" routeLength="976.02" waitingTime="0.00" waitingCount="0" stopTime="0.00" timeLoss="11.51" rerouteNo="1" devices="tripinfo_veh53 routing_veh53" vType="veh_passenger" speedFactor="1.10" vaporized=""/>
    <tripinfo id="veh51" depart="546.00" departLane="502026808_0" departPos="5.10" departSpeed="32.47" departDelay="0.43" arrival="625.00" arrivalLane="502026808_0" arrivalPos="2496.54" arrivalSpeed="32.26" duration="79.00" routeLength="2491.44" waitingTime="0.00" waitingCount="0" stopTime="0.00" timeLoss="1.62" rerouteNo="1" devices="tripinfo_veh51 routing_veh51" vType="veh_passenger" speedFactor="1.17" vaporized=""/>
    <tripinfo id="veh54" depart="578.00" departLane="755788739#1_1" departPos="5.10" departSpeed="0.00" departDelay="0.34" arrival="634.00" arrivalLane="-675335735#1_0" arrivalPos="65.35" arrivalSpeed="13.56" duration="56.00" routeLength="684.91" waitingTime="0.00" waitingCount="0" stopTime="0.00" timeLoss="15.51" rerouteNo="1" devices="tripinfo_veh54 routing_veh54" vType="veh_passenger" speedFactor="1.00" vaporized=""/>
    <tripinfo id="veh55" depart="589.00" departLane="-138959048#2_0" departPos="5.10" departSpeed="22.13" departDelay="0.64" arrival="657.00" arrivalLane="1215820812_0" arrivalPos="0.20" arrivalSpeed="13.47" duration="68.00" routeLength="1241.32" waitingTime="0.00" waitingCount="0" stopTime="0.00" timeLoss="10.21" rerouteNo="1" devices="tripinfo_veh55 routing_veh55" vType="veh_passenger" speedFactor="1.00" vaporized=""/>
    <tripinfo id="veh57" depart="610.00" departLane="336852291#0_1" departPos="5.10" departSpeed="19.05" departDelay="0.25" arrival="666.00" arrivalLane="138959048#1_0" arrivalPos="24.34" arrivalSpeed="25.03" duration="56.00" routeLength="972.10" waitingTime="0.00" waitingCount="0" stopTime="0.00" timeLoss="6.06" rerouteNo="1" devices="tripinfo_veh57 routing_veh57" vType="veh_passenger" speedFactor="1.14" vaporized=""/>
    <tripinfo id="veh58" depart="621.00" departLane="-1080439104_0" departPos="5.10" departSpeed="0.00" departDelay="0.55" arrival="666.00" arrivalLane="502034846#4_0" arrivalPos="497.62" arrivalSpeed="27.46" duration="45.00" routeLength="905.58" waitingTime="0.00" waitingCount="0" stopTime="0.00" timeLoss="8.66" rerouteNo="1" devices="tripinfo_veh58 routing_veh58" vType="veh_passenger" speedFactor="1.02" vaporized=""/>
    <tripinfo id="veh56" depart="600.00" departLane="489734626#0_0" departPos="5.10" departSpeed="0.00" departDelay="0.94" arrival="675.00" arrivalLane="1075635027#2_0" arrivalPos="536.96" arrivalSpeed="19.07" duration="75.00" routeLength="915.17" waitingTime="0.00" waitingCount="0" stopTime="0.00" timeLoss="15.32" rerouteNo="1" devices="tripinfo_veh56 routing_veh56" vType="veh_passenger" speedFactor="0.90" vaporized=""/>
    <tripinfo id="veh59" depart="632.00" departLane="482708369#0_0" departPos="5.10" departSpeed="0.00" departDelay="0.85" arrival="695.00" arrivalLane="1075635027#2_0" arrivalPos="536.96" arrivalSpeed="21.40" duration="63.00" routeLength="876.08" waitingTime="0.00" waitingCount="0" stopTime="0.00" timeLoss="11.34" rerouteNo="1" devices="tripinfo_veh59 routing_veh59" vType="veh_passenger" speedFactor="0.97" vaporized=""/>
    <tripinfo id="veh60" depart="642.00" departLane="-675335735#0_0" departPos="5.10" departSpeed="0.00" departDelay="0.15" arrival="699.00" arrivalLane="1075635027#2_1" arrivalPos="536.96" arrivalSpeed="24.03" duration="57.00" routeLength="831.29" waitingTime="0.00" waitingCount="0" stopTime="0.00" timeLoss="13.64" rerouteNo="1" devices="tripinfo_veh60 routing_veh60" vType="veh_passenger" speedFactor="1.08" vaporized=""/>
    <tripinfo id="veh62" depart="664.00" departLane="-1080439104_0" departPos="5.10" departSpeed="0.00" departDelay="0.76" arrival="699.00" arrivalLane="1075635027#2_0" arrivalPos="536.96" arrivalSpeed="22.40" duration="35.00" routeLength="559.76" waitingTime="1.00" waitingCount="1" stopTime="0.00" timeLoss="8.96" rerouteNo="0" devices="tripinfo_veh62 routing_veh62" vType="veh_passenger" speedFactor="1.02" vaporized=""/>
    <tripinfo id="veh61" depart="653.00" departLane="755788739#0_1" departPos="5.10" departSpeed="24.87" departDelay="0.46" arrival="713.00" arrivalLane="489734628_0" arrivalPos="104.14" arrivalSpeed="15.02" duration="60.00" routeLength="1043.69" waitingTime="0.00" waitingCount="0" stopTime="0.00" timeLoss="10.72" rerouteNo="1" devices="tripinfo_veh61 routing_veh61" vType="veh_passenger" speedFactor="1.12" vaporized=""/>
    <tripinfo id="veh63" depart="674.00" departLane="482708312#0_0" departPos="5.10" departSpeed="13.71" departDelay="0.06" arrival="742.00" arrivalLane="1258954094#1_0" arrivalPos="195.39" arrivalSpeed="26.49" duration="68.00" routeLength="846.37" waitingTime="0.00" waitingCount="0" stopTime="0.00" timeLoss="15.10" rerouteNo="1" devices="tripinfo_veh63 routing_veh63" vType="veh_passenger" speedFactor="0.99" vaporized=""/>
    <tripinfo id="veh65" depart="696.00" departLane="482708312#0_0" departPos="5.10" departSpeed="12.26" departDelay="0.67" arrival="754.00" arrivalLane="755788739#5_0" arrivalPos="10.37" arrivalSpeed="8.22" duration="58.00" routeLength="572.67" waitingTime="0.00" waitingCount="0" stopTime="0.00" timeLoss="11.74" rerouteNo="1" devices="tripinfo_veh65 routing_veh65" vType="veh_passenger" speedFactor="0.88" vaporized=""/>
    <tripinfo id="veh69" depart="739.00" departLane="-993540873_0" departPos="5.10" departSpeed="0.00" departDelay="0.88" arrival="777.00" arrivalLane="502034846#3_0" arrivalPos="100.18" arrivalSpeed="27.81" duration="38.00" routeLength="517.30" waitingTime="0.00" waitingCount="0" stopTime="0.00" timeLoss="12.84" rerouteNo="1" devices="tripinfo_veh69 routing_veh69" vType="veh_passenger" speedFactor="1.02" vaporized=""/>